# vtk DataFile Version 2.0
Volume example
ASCII
DATASET STRUCTURED_POINTS
DIMENSIONS 51 51 51
ASPECT_RATIO 1 1 1
ORIGIN 0 0 0
POINT_DATA 132651
SCALARS volume_scalars FLOAT
LOOKUP_TABLE default
0  100   97   57   11    0    0    0    0    0    0    2   12   45   42    0    0    0    0    0    0   25   40   20   17    7    2    0    0    0    0    0    0   17   33   33   13    1    7   18   25    4    0    0   17   67  100  100   96   60    4    0   99   85   39    4    0    0    0    0    0    0    6   38   88   62   12    0    0    0    0    0   27   66   85   67   44   17    0    0    0    0    0    0    1    4    4    2    0    0    0    0    0    0    0    0   51   93  100   89   43    5   64   89   55   13    0    0    0    0    0    0    1   24   70   97   78   31    0    0    0    0    0   13   60  100   91   44    6    4   25   18    7    1    0    0    0    0    0    0    0    0    0    0    1    0    0   31   78   97   70   24    1   18   44   19    2    1    0    0    0    0    0    5   43   89  100   93   51    0    0    0    0    0    0   43   86   71   23    1   19   75   72   60   35   13    0    0    0    0    0    0    0    0    0   11    2    0   12   62   88   38    6    0    2    0    0    1    7    0    0    0    0    0    4   60   96  100  100   67   17    0    0    0    0    0   25   57   38    5    0   34   81   97   96   80   42    1    0    1    4    0    0    0    0    0    4    1    0    0   42   45   12    2    0    0    0    0    9   28    6    0    0    0    0    1   42   80   96   97   81   34    0    0    0    0    0    6   28    9    0    0   17   67  100  100   96   60    4    0    2   11    0    0    1    0    0    0    0    0    0   16   17    2    0    0    0    0    5   38   57   25    0    0    0    0    0   13   35   60   72   75   19    1    0    0    0    0    0    7    1    0    0    0   51   93  100   89   43    5    0    0    1    0    0   11    2    0    0    0    0    0    1    4    0    0    0    0    2   23   71   86   43    0    0    1    6    1    1    1    7    0   25    4    0    0    0    0    0    0    1    0    0    0    0   31   78   97   70   24    1    0    0    0    0    0    4    1    0    0    0    0    0    0    0    0    0    0    0    6   44   91  100   60   13    0    0   25   40   20   17    7    2    0    0    0    0    0    0    0    0    0    0    0    0    0   12   62   88   38    6    0    0    0    0    0    0    0    0    0    0    0    0    0    0    0    0    0    0    0   17   44   67   85   66   27    0    0   27   66   85   67   44   17    0    0    0    0    0    0    0    2    0    0    0    0    0    0   42   45   12    2    0    0    0    0    0    0    0    0    0    0    0    0    0    0    0    0    0    0    0    2    7   17   20   40   25    0    0   13   60  100   91   44    6    0    0    0    0    2   19   44   18    0    0    0    0    0    0   16   17    2    0    0    0    0    0    0    0    0    0    1    4    0    0    0    0    0    0    0    0    0    0    4    1    1    1    6    1    0    0   43   86   71   23    2    0    0    0    0   13   55   89   64   15    0    0    0    0    0    1    4    0    6    1    1    1    0    0    0    0    0    2   11    0    0    0    0    0    0    0    0    0    2   17   16    0    0    0    0    0    0   25   57   38    5    0    0    0    0    4   39   85   99   84   39    0    0    0    0    0    0    0    0   25   40   20   17    7    2    0    0    0    0    1    1    5    5    0    0    0    0    0    2   12   45   42    0    0    0    0    0    0    0   28    9    0    0    0    0    0   11   57   97  100   96   62    0    0    0    0    0    0    0    0   27   66   85   67   44   17    0    0    0    0    0    7   26   31    0    0    0    0    0    6   38   88   62   12    0    0    4   25   18    7    1    0    0    0    0    0    0    1   55   96  100  100   74   21    0    0    0    0    0    0    0   13   60  100   91   44    6    0    0    0    0    0   16   59   49    8    0    0    0    0   24   70   97   78   31    0    1   19   75   72   60   35   13    0    0    0    0    0    0   38   83  100  100   81   29    0    0    0    0    0    0    0    0   43   86   71   23    2    0    0    0    0    0   17   33   33   13    0    0    0    1   43   89  100   93   51    0    0   34   81   97   96   80   42    1    0    1    0    0    0   17   70  100   97   78   17    1    0    0    0    0    0    0    0   25   57   38    5    0    0    0    0    0    0    1    4    4    2    0    0    0    5   60   96  100  100   67   17    0   17   67  100  100   96   60    4    0   11    2    0    0    0   54   91   85   37    7    0    0    0    0    0    0    0    0    6   28    9    0    0    0    0    0    7   14    0    0    0    0    0    0    0    4   42   80   96   97   81   34    0    0   51   93  100   89   43    5    0    4    1    0    0    0   33   71   57   11    1    0    0    0    0    0    0    0    0    0    7    1    0    0    0    0    1   29   48   11    0    0    0    0    0    0    1   13   35   60   72   75   19    1    0   31   78   97   70   24    1   11    0    0    0    0    0   11   48   29    1    0    0    0    0    0    0    0    0    0    0    1    0    0    0    0    1   11   57   71   33    0    0    0    0    0    0    0    0    1    7   18   25    4    0    0   12   62   88   38    6    0   33    0    0    0    0    0    0   14    7    0    0    0    0    0    0    0    0    0    0    0    0    0    0    0    0    7   37   85   91   54    0    0    0    0    0    0    0    0    0    0    0    0    0    0    0    0   42   45   12    2   91   54    0    0    0    0    0    0    0    0    0    0    0    0    0    0    1    0    0    0    0    0    0    0    0    1   17   78   97  100   70   17    0    0    0    0    0    0    0    0    0    0    0    1    5    5    0   16   17    2   97  100   70   17    0    0    0    0    0    0    0    0    0    0    0    0    1    7    0    0    0    0    0    0    0    0    0   29   81  100  100   83   38    0    0    0    0    0    0    0    0    0    0    0    7   26   31    0    1    4    0  100  100   83   38    0    0    0    0    0    0    0    0    0    0    0    0    9   28    6    0    0    0    0    0    0    0    0   21   74  100  100   96   55    1    0    0    4    1    0    0    0    0    0    0   16   59   49    8    0   21   74  100  100   96   55    1    0    0    0    0    0    0    0    0    0    0    5   38   57   25    0    0    0    0    0    0    0    0    0   62   96  100   97   57   11    0    2   17   16    0    0    0    2    0    0   17   33   33   13    0    0    1   96  100   97   57   11    0    0    0    0    0    0    0    0    0    2   23   71   86   43    0    0    0    0    0    0    0    1    0   39   84   99   85   39    4    2   12   45   42    0   19   44   18    0    0    1    4    4    2    0    1    7   84   99   85   39    4    0    0    0    0    0    0    0    0    0    6   44   91  100   60   13    0    0    0    0    0    1    7    0   15   64   89   55   13    0    6   38   88   62   12   55   89   64   15    0    0    0    0    0    0    9   28    6   89   55   13    0    0    0    0    0    0    0    1    0    0   17   44   67   85   66   27    0    0    0    0    0    9   28    6    0   18   44   19    2    1   24   70   97   78   31   85   99   84   39    0    0    0    0    0    5   38   57   25   44   19    2    0    0    0    0    0    0    1    7    0    0    2    7   17   20   40   25    0    0    0    0    5   38   57   25    0    2    0    0    0    5   43   89  100   93   51   17  100   96   62    0    0    0    0    2   23   71   86   43    0    0    0    0    0    0    0    0    0    9   28    6    0    0    0    1    1    1    6    1    0    0    2   23   71   86   43    0    0    0    0    0    4   60   96  100  100   67   34  100  100   74   21    0    0    0    4    1   91  100   60   13    0    0    0    1    4    0    0    5   38   57   25    0    0    0    0    0    0    0    0    0    0    6   44   91  100   60   13    0    0    0    0    1   42   80   96   97   81   19    1  100   81   29    0    0    2   17   16   67   85   66   27    0    0    0    2   11    0    2   23   71   86   43    0    0    0    0    0    0    0    0    0    0   17   44   67   85   66   27    0    0    0    0    0   13   35   60   72   75    4  100   97   78   17    1    2   12   45   42   17   20   40   25    0    0    0    0    1    0    6   44   91  100   60   13    0    0    0    0    0    0    0    0    0    2    7   17   20   40   25    0    0    0    0    0    0    1    7   18   25   54   91   85   37    7    0    6   38   88   62   12    1    1    6    1    0    0    0    0    0   17   44   67   85   66   27    0    0    0    0    0    0    0    0    0    0    0    1    1    1    6    1    0    0    0    0    0    0    0    0    0   33   71   57   11    1    1   24   70   97   78   31    0    0    0    0    1    0    0    0    0    2    7   17   20   40   25    0    0    0    0    0    0    0    0    0    0    0    0    0    0    0    0    0    0    0    0    0    0    0    0    0   11   48    0    7   14    5   43   89  100   93   51    0    0    0    1    7    0    0    0    0    0    0    1    1    1    6    1    0    0    0    0    0    0    0    0    0    0    0    0    0    0    0    0    4   25   18    7    1    0    0    0    0   14    1   29   48   11   60   96  100  100   67   17    0    0    9   28    6    0    0    0    0    0    0    0    0    0    0    0    0    0    0    0    0    0    0    0    0    0    0    0    0    0    1   19   75   72   60   35   13    0    0    0    1   11   57   71   33   42   80   96   97   81   34    0    5   38   57   25    0    0    0    2    0    0    0    0    0    0    0    0    0    1    6    1    1    1    0    0    0    0    0    0    0    0   34   81   97   96   80   42    1    0    0    7   37   85   91   54   13   35   60   72   75   19    1   23   71   86   43    2   19   44   18    0    0    0    0    0    1    0    0    0    0   25   40   20   17    7    2    0    0    0    0    0    0   17   67  100  100   96   60    4    0    1   17   78   97  100   70   17    1    7   18   25    4    6   44   91  100   60   13   55   89   64   15    0    0    0    0   11    2    0    0    0   27   66   85   67   44   17    0    0    0    0    0    0    0   51   93  100   89   43    5    0    0   29   81  100  100   83   38    0    0    0    0    0   17   44   67   85   66   27   85   99   84   39    0    0    0    0    4    1    0    0    0   13   60  100   91   44    6    0    0    0    0    0    0    0   31   78   97   70   24    1    0    0   21   74  100  100   96   55    1    0    0    0    0    2    7   17   20   40   25   97  100   96   62    0    0    0    0    0    0    0    0    0    0   43   86   71   23    2    0    0    0    0    0    0    0   12   62   88   38    6    0    0    0    0   62   96  100   97   57   11    0    0    0    0    0    0    1    1    1    6    1  100  100   74   21    0    0    0    0    0    0    0    0    0   25   57   38    5    0    0    4    1    0    0    0    0    0   42   45   12    2    0    0    0    0   39   84   99   85   39    4    4    1    0    0    0    0    0    0    0   38   83  100  100   81   29    0    0    0    0    0    0    0    0    0    6   28    9    0    0    2   17   16    0    0    0    0    0   16   17    2    0    0    0    7   14   15   64   89   55   13    0   33   17    5    0    0    0    0    0    0   17   70  100   97   78   17    1    0    0    0    0    0    0    0    0    0    7    1    0    2   12   45   42    0    0    0    0    0    1    4    0    0    0    0   29   48   11   18   44   19    2   49   59   16    0    0    0    0    0    0    0    0   54   91   85   37    7    0    0    0    1    4    0    0    0    0    0    1    0    0    6   38   88   62   12    0    0    0    0    0    0    0    0    0    1   57   71   33    2    0    0    0   31   26    7    0    8    0    0    0    0    0    0   33   71   57   11    1    0    0    0    2   11    0    0    0    0    0    0    0    1   24   70   97   78   31    0    0    0    0    0    0    0    0    1   11   85   91   54    0    0    0    0    5    5    1   33   13    0    0    0    0    0    0   11   48   29    1    0    0    0    0    0    1    0    0    0    0    0    0    0    0   43   89  100   93   51    0    0    0    0    0    0    0    0    7   37   97  100   70   17    0    0    0    0    0    0    4    2    0    0    0    0    0    0    0   14    7    0    0    0    0    0    0    0    0    0    0    0    0    1    5    5   60   96  100  100   67   17    0    0    4   25   18    7    1    0    0  100  100   83   38    0    0    0    0    0    0    0    0    0    4    1    0    0    0    0    0    0    0    0    0    0    0    0    0    0    0    0    0    0    7   26   31   42   80   96   97   81   34    0    1   19   75   72   60   35   13    0  100  100   96   55    1    0    0    0    0    0    0    0    2   17   16    0    0    0    0    0    1    6    1    1    1    0    0    0    0    0    0    0    0   16   59   49    8   35   60   72   75   19    1    0   34   81   97   96   80   42    1
100  100   67   17    0    0    0    0    0    0    0    0    1    7    0    0    0    0    0    1   19   75   72   60   35   13    0    0    0    0    0    0    0    0    4    1    0    1    1    1    6    1    0   11   57   97  100   96   62   60   96   96   97   81   34    0    0    0    0    0    0    0    0    9   28    6    0    0    0    0    0   34   81   97   96   80   42    1    0    0    0    2    0    0    0    0    0    0    0    0    0    0    0    0    1   55   96  100  100   74   21   80   60   72   75   19    1    0    0    0    0    0    0    5   38   57   25    0    0    0    0    0   17   67  100  100   96   60    4    2   19   44   18    0    0    0    0    0    0    0    0    0    0    0    0    0   38   83  100  100   81   29   35    7   18   25    4    0    0    0    0    0    0    2   23   71   86   43    0    0    0    0    0    0   51   93  100   89   43    0   13   55   89   64   15    0    0    2    4    4    1    0    0    0    0    0    0   17   70  100   97   78   17    1    0    0    0    0    0    0    0    0    0    0    6   44   91  100   60   13    0    0    0    0    0   31   78   97   70   24    4   39   85   99   84   39    0    0   13   33   33   17    0    0    0    0    0    0    0   54   91   85   37    7    0    0    0    0    0    0    0    0    0    0    0   17   44   67   85   66   27    0    0    0    0    0   12   62   88   38    6   11   57   97  100   96   62    0    0    8   49   59   16    0    0    0    0    0    0    0   33   71   57   11    1    0    0    0    1    5    5    0    0    0    0    0    2    0   17   20   40   25    0    0    0    0    0    0   42   45   12    2    1   55   96  100  100   74   21    0    0   31   26    7    0    0    0    0    0    0    0   11   48   29    1    0    0    0    0    7   26   31    0    0    0    4   25   18    7    1    0    0    6    1    0    0    0    0    0   16   17    2    0    0   38   83  100  100   81   29    0    0    5    5    1    0    0    0    0    0    0    0    0   14    7    0    0    0    0    0   16   59   49    8    0    1   19   75   72   60   35   13    0    0    0    0    0    0    0    0    1    4    0    0    0   17   70  100   97   78   17    1    0    0    0    0    0    0    0    0    0    0    0    0    0    0    0    0    0    0    0   17   33   33   13    0    0   34   81   97   96   80   42    1    0    0    0    0    0    0    0    0    0    0    0    0    0   54   91   85   37    7    0    0    0    0    0    0    0    2    4    4    1    0    0    0    1    4    0    0    0    0    1    4    4    2    0    0   17   67  100  100   96   60    4    0    0    0    0    0    7   14    0    0    0    0    0    0   33   71   57   11    1    0    0    0    0    0    0    0   13   33   33   17    0    0    0    2   11    0    0    0    0    0    0    0    0    0    0    0   51   93  100   89   43    5    0    0    0    0    1   29   48   11    0    0    0    0    0   11   48   29    1   25   18    7    1    0    0    0    0    8   49   59   16    0    0    0    0    1    0    0    0    0    1    0    0    0    0    0    0   31   78   97   70   24    1    0    0    0    1   11   57   71   33    0    0    0    0    0    0   14    7    0   75   72   60   35   13    0    0    0    0   31   26    7    0    0    0    0    0    0    0    0    1    7    0    0    0    0    0    0   12    2   88   38    6    0    0    0    0    7   37   85   91   54    0    0    0    0    0    0    0    0   34   81   97   96   80   42    1    0    0    0    5    5    0    1    0    0    0    0    0    0    0    9   28    6    0    0    0    2   19   44   18   45   12    2    0    0    0    1   17   78   97  100   70   17    0    0    0    0    0    0    0   17   67  100  100   96   60    4    0    0    0    0    0    0   11    2    0    0    0    0    0    5   38   57   25    0    0    0   13   55   89   64   15    2    0    0    0    0    0   29   81  100  100   83   38    0    0    0    0    0    0    0    0   51   93  100   89   43    5    0    0    0    0    0    0    4    1    0    0    0    0    0   23   71   86   43    0    0    4   39   85   99   84   39    0    0    0    0    0    0   21   74  100  100   96   55    1    0    0    0    0    0    0    0   31   78   97   70   24    1    0    0    0    0    0    0    0    0    0    0    0    0    2   44   91  100   60   13    0   11   57   97  100   96   62    0    0    0    0    0    0    0   62   96  100   97   57   11    0    0    0    0    0    0    0   12   62   88   38    6    0    0    0    0    0    0    0    0    0    0    0    0    0    6   44   67   85   66   27    0    1   55   96  100  100   74   21    0    0    0    0    0    0   39   84   99   85   39    4    0    0    0    0    0    0    0    0   42   45   12    2    0    0    0    0    4    1    0    0    0    0    0    0    0   17    7   17   20   40   25    0    0   38   83  100  100   81   29    1    0    0    0    0    0   15   64   89   55   13    0    0    0    0    0    0    0    0    0   16   17    2    1    4    0    0    2   17   16    0    0    0    0    0    0    0    2    0    1    1    1    6    1    0   17   70  100   97   78   17    1    0    0    0    0    0    0   18   44   19    2    0    0    0    0    0    0    0    0    0    1    4    0    2   11    0    2   12   45   42    0    0    0    0    0    0    0    0    0    0    0    0    0    0    0    0   54   91   85   37    7    0    0    0    0    0    0    0    2    0    0    0    0    0    0    0    0    0    0    0    0    0    0    0    0    1    0    6   38   88   62   12    0    0    0    0    0    0    0    0    0    0    0    0    0    0    0   33   71   57   11    1   62   12    0    0    0    0    0    0    0    0    0    0    0    0    0    0    0    0    0    0    0    0    0    0    0    1   24   70   97   78   31    0    0    0    0    0    0    0    0    0    0    0    0    0    1    0   11   48   29    1   97   78   31    0    0    0    0    0    0    0    0    0    0    0    0    0    0    0    0    0    0    0    0    0    0    0    5   43   89  100   93   51    0    0    0    0    0    0    0    0    0    0    0    0    0   11    2    0   14    7    0  100   93   51    0    0    0    0    0    0    0    0    0    0    2    4    1    5    5    0    0    0    0    0    0    0    0    4   60   96  100  100   67   17    0    0    0    1    0    0    0    0    0    0    0    0    4    1    0    4   60   96  100  100   67   17    0    0    0    0    0    0    0    0    0   13    0    7   26   31    0    0    0    0    0    0    0    0    1   42   80   96   97   81   34    0    0    1    7    0    0    7   14    0    0    0    0    0    0    0    1   42   80   96   97   81   34    0    0    0    0    0    0    0    0    0    8    0   16   59   49    8    0    0    0    0    0    0    0    0   13   35   60   72   75   19    1    0    9   28    6    0   29   48   11    0    0    0    0    0    0    0    0    0   60   72   75   19    1    0    0    0    0    0    0    0    0    0   31   17   33   33   13    0    0    0    0    0    0    0    0    0    1    7   18   25    4    0    5   38   57   25    1   57   71   33    0    0    0    0    0    0    1    5    5    7   18   25    0    0    0    0    0    0    0    0    0    0    0    5    1    4    4    2    0    0    0    0    0    1    5    5    0    0    0    0    0    0    2   23   71   86   43   11   85   91   54    0    0    0    0    0    0    7   26   31    0    0    0    0    2    4    4    1    0    0    0    0    0    0    0    0    0    0    0    0    0    0    0    0    7   26   31    0    0    0    0    0    0    6   44   91  100   60   13   97  100   70   17    0    0    0    0    0   16   59   49    8    0    0    0   13   33   33   17    0    1    5    5    0    0    0    0    0    0    0    0    0    0    0    0   16   59   49    8    0    0    0    0    0   17   44   67   85   66   27  100  100   83   38    0    0    0    0    1   17   33   33   13    0    0    0    8   49   59   16    0    7   26   31    0    0    0    0    0    0    0    0    0    0    0    0   17   33   33   13    0    0    0    0    0    2    7   17   20   40   25    1  100   96   55    1    0    0    1    7    1    4    4    2    0    0    0    0   31   26    7    0   16   59   49    8    0    0    0    0    0    0    0    0    0    0    0    1    4    4    2    0    0    0    0    0    0    0    1    1    1    6   96  100   97   57   11    0    0    9   28    6    0    0    0    0    0    0    0    5    5    1    0   17   33   33   13    0    0    0    0    0    0    0    0    0    0    0    0    0    0    0    0    0    0    0    0    0    0    0    0    0   62   84   99   85   39    4    0    5   38   57   25    0    0    0    0    0    0    0    0    0    0    0    1    4    4    2    0    0    0    0    0    0    0    0    0    0    0    0    0    0    0    0    0    0    0    0    0    2    0    0    0   39   64   89   55   13    0    2   23   71   86   43    0    0    0    0    0    0    0    0    0    0    0    0    0    0    0    0    0    0    0    0    0    0    0    0    0    0    0    0    0    0    0    0    0    2   19   44   18    0    0    0   15   18   44    0    4    1    6   44   91  100   60   13    0    0    0    0    0    0    0    0    0    0    0    0    0    0    0    0    0    0    0    0    0    0    0    0    0    0    0    0    0    0    0    0   13   55   89   64   15    0    0    0    2    0    2   17   16   17   44   67   85   66   27    0    0    1    5    5    0    0    0    0    0    0    0    0    0    0    0    0    0    0    4   25   18    7    1    0    0    0    0    0    0    0    4   39   85   99   84   39    0    0    0    0    2   12   45   42    2    7   17   20   40   25    0    0    7   26   31    0    0    7   14    0    0    0    0    0    0    0    0    0    1   19   75   72   60   35   13    0    0    0    0    0    0   11   57   97  100   96   62    0    0    0    0    6   38   88   62   12    0    1    1    1    6    1    0   16   59   49    8    1   29   48   11    0    0    0    0    0    0    0    0    0   34   81   97   96   80   42    1    0    0    0    0    0    1   55   96  100  100   74   21    0    0    1   24   70   97   78   31    0    0    0    0    0    0    0   17   33   33   13   11   57   71   33    0    0    0    0    0    0    0    0    0   17   67  100  100   96   60    4    0    0    0    0    0    0   38   83  100  100   81   29    0    0    5   43   89  100   93   51    0    0    0    0    0    0    0    1    4    4    2   37   85   91   54    0    0    0    0    0    0    0    0    0    0   51   93  100   89   43    5    0    0    0    0    0    0   17   70  100   97   78   17    1    0    4   60   96  100  100   67   17    1    1    0    0    0    0    0    0    0    0    0   97  100   70   17    0    0    0    0    0    0    0    0    0   31   78   97   70   24    1    0    0    0    0    0    0    0   54   91   85   37    7    0    0    1   42   80   96   97   81   34   20   17    7    2    0    0    0    0    0   29   81  100  100   83   38    0    0    0    0    0    0    0    0    0   12   62   88   38    6    0    0    1    0    0    0    0    0   33   71   57   11    1    0    0    0   13   35   60   72   75   19    1   67   44   17    0    0    0    0    0   21   74  100  100   96   55    1    0    0    2    4    4    1    0    0    0   42   45   12    2    0    1    7    0    0    0    0    0   11   48   29    1    0    0    0    0    0    1    7   18   25    4  100   91   44    6    0    0    0    0    0    0   62   96  100   97   57   11    0    0   13   33   33   17    0    0    0   16   17    2    0    0    9   28    6    0    0    0    0    0   14    7    0    0    0    0   17   16    0    0    0    0   43   86   71   23    2    0    0    0    0    0    0   39   84   99   85   39    4    0    0    8   49   59   16    0    0    0    1    4    0    0    5   38   57   25    0    0    0    0    0    0    0    0    0    0    2   45   42    0    0    0    0   25   57   38    5    0    0    0    0    0    0    0   15   64   89   55   13    0    0    0    0   31   26    7    0    0    0    0    0    0    2   23   71   86   43    0    0    0    0    0    0    0    2    0    2   12   88   62   12    0    0    0    6   28    9    0    0    0    0    0    0    0    0    0   18   44   19    2    0    0    0    0    5    5    1    0    0    0    0    0    0    6   44   91  100   60   13    0    0    0    2   19   44   18    0    6   38   97   78   31    0    0    0    0    7    1    0    0    0    0    0    0    0    0    0    2    0    0    0    0    0    0    0    0    0    0    0    0    0    0    0    1   17   44   67   85   66   27    0    0    0   13   55   89   64   15   24   70  100   93   51    0    0    0    0    1    0    0    0    0    0    1    0    0    0    0    0    0    4   25   18    7    1    0    0    0    0    0    0    0    0    0   11    2    7   17   20   40   25    0    0    4   39   85   99   84   39   43   89